#------------------------------------------------------------------------------
#$Date: 2015-01-27 21:58:39 +0200 (Tue, 27 Jan 2015) $
#$Revision: 130149 $
#$URL: svn://www.crystallography.net/cod/cif/1/00/01/1000198.cif $
#------------------------------------------------------------------------------
#
# This file is available in the Crystallography Open Database (COD),
# http://www.crystallography.net/
#
# All data on this site have been placed in the public domain by the
# contributors.
#
data_1000198
loop_
_publ_author_name
'Fourquet, J L'
'Plet, F'
'Courbion, G'
'Bulou, A'
'de Pape, R'
_publ_section_title
;
Etude de la filiation structurale des phases M(I) Al F~4~ (M(I) = K,
Rb, Tl, N H~4~, Cs)
;
_journal_coden_ASTM              RVCMA8
_journal_name_full               'Revue de Chimie Minerale'
_journal_page_first              490
_journal_page_last               500
_journal_volume                  16
_journal_year                    1979
_chemical_formula_structural     'TL AL F4'
_chemical_formula_sum            'Al F4 Tl'
_chemical_name_systematic        'THALLIUM ALUMINIUM FLUORIDE'
_space_group_IT_number           123
_symmetry_cell_setting           tetragonal
_symmetry_Int_Tables_number      123
_symmetry_space_group_name_Hall  '-P 4 2'
_symmetry_space_group_name_H-M   'P 4/m m m'
_cell_angle_alpha                90
_cell_angle_beta                 90
_cell_angle_gamma                90
_cell_formula_units_Z            1
_cell_length_a                   3.616(3)
_cell_length_b                   3.616(3)
_cell_length_c                   6.366(3)
_cell_volume                     83.2
_exptl_crystal_density_meas      6.11(2)
_refine_ls_R_factor_all          0.05
_cod_database_code               1000198
loop_
_symmetry_equiv_pos_as_xyz
x,y,z
-x,-y,z
-x,y,z
x,-y,z
-y,x,z
y,-x,z
y,x,z
-y,-x,z
-x,-y,-z
x,y,-z
x,-y,-z
-x,y,-z
y,-x,-z
-y,x,-z
-y,-x,-z
y,x,-z
loop_
_atom_site_label
_atom_site_type_symbol
_atom_site_symmetry_multiplicity
_atom_site_Wyckoff_symbol
_atom_site_fract_x
_atom_site_fract_y
_atom_site_fract_z
_atom_site_occupancy
_atom_site_attached_hydrogens
_atom_site_calc_flag
Tl1 Tl1+ 1 a 0. 0. 0. 1. 0 d
Al1 Al3+ 1 d 0.5 0.5 0.5 1. 0 d
F1 F1- 2 e 0.5 0. 0.5 1. 0 d
F2 F1- 2 h 0.5 0.5 0.21(1) 1. 0 d
loop_
_atom_type_symbol
_atom_type_oxidation_number
Tl1+ 1.000
Al3+ 3.000
F1- -1.000
