#------------------------------------------------------------------------------
#$Date: 2021-05-18 19:36:50 +0300 (Tue, 18 May 2021) $
#$Revision: 265307 $
#$URL: svn://www.crystallography.net/cod/cif/3/00/01/3000104.cif $
#------------------------------------------------------------------------------
#
# This file is available in the Crystallography Open Database (COD),
# http://www.crystallography.net/
#
# All data on this site have been placed in the public domain by the
# contributors.
#
data_3000104
loop_
_publ_author_name
'Bubnova, Rimma'
'Volkov, Sergey'
'Barbara Albert'
'Filatov, Stanislav'
_publ_section_title
;
 Borates--Crystal Structures of Prospective Nonlinear Optical Materials:
 High Anisotropy of the Thermal Expansion Caused by Anharmonic Atomic
 Vibrations
;
_journal_issue                   3
_journal_name_full               Crystals
_journal_page_first              93
_journal_paper_doi               10.3390/cryst7030093
_journal_volume                  7
_journal_year                    2017
_chemical_formula_sum            'B2 Ba O4'
_chemical_formula_weight         223
_space_group_IT_number           161
_symmetry_cell_setting           trigonal
_symmetry_Int_Tables_number      161
_symmetry_space_group_name_Hall  'R 3 -2"c'
_symmetry_space_group_name_H-M   'R 3 c :H'
_cell_angle_alpha                90
_cell_angle_beta                 90
_cell_angle_gamma                120
_cell_formula_units_Z            18
_cell_length_a                   12.5868(18)
_cell_length_b                   12.5868(18)
_cell_length_c                   12.709(2)
_cell_measurement_temperature    123
_cell_volume                     1743.7(4)
_diffrn_ambient_temperature      123
_diffrn_measured_fraction_theta_full 0.98
_diffrn_measured_fraction_theta_max 0.98
_diffrn_measurement_device       'four-circle diffractometer'
_diffrn_measurement_device_type  'IPDS Stoe'
_diffrn_measurement_method       '??integration method??'
_diffrn_radiation_monochromator  graphite
_diffrn_radiation_probe          x-ray
_diffrn_radiation_source         'X-ray tube'
_diffrn_radiation_type           'Mo K\a'
_diffrn_radiation_wavelength     0.71073
_diffrn_reflns_av_R_equivalents  0.0786
_diffrn_reflns_av_unetI/netI     0.0034
_diffrn_reflns_limit_h_max       17
_diffrn_reflns_limit_h_min       -17
_diffrn_reflns_limit_k_max       17
_diffrn_reflns_limit_k_min       -17
_diffrn_reflns_limit_l_max       17
_diffrn_reflns_limit_l_min       -17
_diffrn_reflns_number            5100
_diffrn_reflns_theta_full        29.19
_diffrn_reflns_theta_max         29.19
_diffrn_reflns_theta_min         3.24
_exptl_absorpt_coefficient_mu    10.11
_exptl_crystal_density_diffrn    3.8219
_exptl_crystal_F_000             1764
_refine_diff_density_max         0.90
_refine_diff_density_min         -0.94
_refine_ls_abs_structure_details
'  509 of Friedel pairs used in the refinement'
_refine_ls_extinction_coef       3600(200)
_refine_ls_extinction_method
'B-C type 1 Gaussian isotropic (Becker & Coppens, 1974)'
_refine_ls_goodness_of_fit_gt    2.84
_refine_ls_goodness_of_fit_ref   2.84
_refine_ls_number_constraints    1
_refine_ls_number_parameters     65
_refine_ls_number_reflns         1033
_refine_ls_number_restraints     0
_refine_ls_R_factor_all          0.0246
_refine_ls_R_factor_gt           0.0245
_refine_ls_shift/su_max          0.0040
_refine_ls_shift/su_mean         0.0013
_refine_ls_structure_factor_coef F
_refine_ls_weighting_details     w=1/(\s^2^(F)+0.0001F^2^)
_refine_ls_weighting_scheme      sigma
_refine_ls_wR_factor_gt          0.0315
_refine_ls_wR_factor_ref         0.0315
_reflns_number_gt                1027
_reflns_number_total             1033
_reflns_threshold_expression     I>3\s(I)
_cod_data_source_file            b-BaB2O4_123K.cif
_cod_data_source_block           I
_cod_depositor_comments
;
The following automatic conversions were performed:

'_diffrn_radiation_probe' value 'X-ray' changed to 'x-ray' according
to the built-in table from CIF Core dictionary named 'cif_core.dic'
version 2.4.1 from 2010-06-29.

Automatic conversion script
Id: cif_fix_values 4624 2016-04-14 12:54:50Z antanas 

 Released structure into public domain as published material.

 Antanas Vaitkus,
 2021-05-18
;
_cod_original_sg_symbol_Hall     'R 3;-2"c'
_cod_original_sg_symbol_H-M      'R 3 c'
_cod_original_formula_sum        'B2 Ba1 O4'
_cod_database_code               3000104
loop_
_space_group_symop_id
_space_group_symop_operation_xyz
1 x,y,z
2 -y,x-y,z
3 -x+y,-x,z
4 -y,-x,z+1/2
5 -x+y,y,z+1/2
6 x,x-y,z+1/2
7 x+2/3,y+1/3,z+1/3
8 -y+2/3,x-y+1/3,z+1/3
9 -x+y+2/3,-x+1/3,z+1/3
10 -y+2/3,-x+1/3,z+5/6
11 -x+y+2/3,y+1/3,z+5/6
12 x+2/3,x-y+1/3,z+5/6
13 x+1/3,y+2/3,z+2/3
14 -y+1/3,x-y+2/3,z+2/3
15 -x+y+1/3,-x+2/3,z+2/3
16 -y+1/3,-x+2/3,z+1/6
17 -x+y+1/3,y+2/3,z+1/6
18 x+1/3,x-y+2/3,z+1/6
loop_
_atom_site_label
_atom_site_type_symbol
_atom_site_fract_x
_atom_site_fract_y
_atom_site_fract_z
_atom_site_adp_type
_atom_site_U_iso_or_equiv
_atom_site_site_symmetry_multiplicity
_atom_site_occupancy
_atom_site_calc_flag
_atom_site_refinement_flags
_atom_site_disorder_assembly
_atom_site_disorder_group
B1 B 0.0210(5) -0.1016(5) 0.2428(5) Uani 0.0085(19) 18 1 d . . .
B2 B 0.0428(5) -0.0872(5) 0.5039(4) Uani 0.0100(18) 18 1 d . . .
Ba1 Ba 0.36136(2) 0.35829(2) 0.379896(14) Uani 0.00751(13) 18 1 d . . .
O1 O -0.0412(4) 0.0833(4) 0.5014(3) Uani 0.0113(13) 18 1 d . . .
O2 O 0.1638(4) 0.2497(4) 0.5094(3) Uani 0.0117(13) 18 1 d . . .
O3 O 0.1185(3) 0.0210(3) 0.2445(3) Uani 0.0117(13) 18 1 d . . .
O4 O 0.0452(3) 0.2383(3) 0.7349(3) Uani 0.0101(13) 18 1 d . . .
loop_
_atom_site_aniso_label
_atom_site_aniso_type_symbol
_atom_site_aniso_U_11
_atom_site_aniso_U_22
_atom_site_aniso_U_33
_atom_site_aniso_U_12
_atom_site_aniso_U_13
_atom_site_aniso_U_23
B1 B 0.007(2) 0.008(2) 0.011(2) 0.0040(19) -0.0018(18) 0.0003(18)
B2 B 0.005(2) 0.009(2) 0.013(2) 0.0014(19) -0.0010(19) -0.0015(19)
Ba1 Ba 0.00546(17) 0.00543(18) 0.01174(17) 0.00280(10) -0.00026(13) 0.00001(13)
O1 O 0.0061(16) 0.0072(16) 0.0210(18) 0.0035(13) -0.0004(14) 0.0005(14)
O2 O 0.0106(16) 0.0076(16) 0.0172(18) 0.0048(13) 0.0036(14) 0.0017(13)
O3 O 0.0075(15) 0.0044(17) 0.0253(19) 0.0046(14) 0.0018(13) 0.0012(14)
O4 O 0.0093(15) 0.0073(16) 0.0124(15) 0.0031(14) 0.0012(12) -0.0017(13)
loop_
_atom_type_symbol
_atom_type_scat_dispersion_real
_atom_type_scat_dispersion_imag
_atom_type_scat_source
B 0.0013 0.0007 'International Tables Vol C tables 4.2.6.8 and 6.1.1.1'
Ba -0.3244 2.2819 'International Tables Vol C tables 4.2.6.8 and 6.1.1.1'
O 0.0106 0.0060 'International Tables Vol C tables 4.2.6.8 and 6.1.1.1'
loop_
_geom_angle_atom_site_label_1
_geom_angle_atom_site_label_2
_geom_angle_atom_site_label_3
_geom_angle_site_symmetry_1
_geom_angle_site_symmetry_2
_geom_angle_site_symmetry_3
_geom_angle
B2 O1 B2 2_555 . 3_555 124.3(7)
B1 O3 B1 . . 2_555 123.5(5)
loop_
_geom_bond_atom_site_label_1
_geom_bond_atom_site_label_2
_geom_bond_site_symmetry_1
_geom_bond_site_symmetry_2
_geom_bond_distance
O1 B2 . 2_555 1.417(8)
O1 B2 . 3_555 1.413(6)
O2 B2 . 2_555 1.323(8)
O3 B1 . . 1.412(6)
O3 B1 . 2_555 1.398(11)
O4 B1 . 6_555 1.335(10)
loop_
_refln_index_h
_refln_index_k
_refln_index_l
_refln_F_squared_calc
_refln_F_squared_meas
_refln_F_squared_sigma
_refln_observed_status
-1 2 0 67878.30 82613.40 262.09 o
-1 5 0 149869.00 177820.00 364.93 o
-4 5 0 156247.00 122180.00 519.30 o
-3 6 0 229829.00 302192.00 642.00 o
0 6 0 155586.00 181679.00 267.34 o
-6 6 0 153659.00 142071.00 329.02 o
-2 7 0 69837.20 74763.20 120.63 o
-5 7 0 72440.80 72364.90 142.51 o
-4 8 0 79437.90 81641.20 128.82 o
-1 8 0 23676.60 25145.80 83.27 o
-7 8 0 22221.90 21538.90 110.87 o
-3 9 0 137770.00 147669.00 147.93 o
-6 9 0 137211.00 133195.00 172.96 o
0 9 0 64879.60 67348.10 140.28 o
-9 9 0 62819.30 54294.10 199.70 o
-5 10 0 212.56 643.22 69.00 o
-2 10 0 434.05 687.69 56.69 o
-8 10 0 263.95 330.24 88.72 o
-4 11 0 20646.90 20428.10 82.61 o
-7 11 0 19933.10 18745.60 95.08 o
-1 11 0 7961.77 8704.59 64.42 o
-10 11 0 7698.23 6996.08 94.14 o
-6 12 0 8382.10 8494.73 76.84 o
-3 12 0 4345.90 4735.07 66.73 o
-9 12 0 4994.58 4920.13 91.48 o
0 12 0 1411.49 2189.93 91.25 o
-12 12 0 1443.43 1235.56 115.91 o
-5 13 0 5171.87 5607.20 76.64 o
-8 13 0 5208.20 5105.44 86.53 o
-2 13 0 2054.90 2373.34 69.08 o
-11 13 0 2275.77 2124.45 96.23 o
-7 14 0 23533.50 23413.40 94.98 o
-4 14 0 14711.00 14757.40 82.03 o
-10 14 0 14893.00 13389.20 99.44 o
-1 14 0 2107.65 2402.76 81.41 o
-13 14 0 2536.09 2435.42 113.50 o
-6 15 0 2312.70 2605.43 76.49 o
-9 15 0 2181.98 2141.42 91.28 o
-3 15 0 6369.19 6384.54 79.13 o
-12 15 0 6510.44 6043.78 106.33 o
-8 16 0 21030.50 20763.60 114.66 o
-5 16 0 28487.10 28740.40 97.59 o
-11 16 0 29246.40 26271.40 115.15 o
-7 17 0 16386.30 15805.50 109.36 o
-10 17 0 16006.40 14761.10 124.25 o
-2 3 1 19514.20 19640.20 122.49 o
-1 3 -1 18962.50 19159.60 132.71 o
-1 4 1 59252.10 65949.70 158.81 o
-3 4 -1 62117.90 67643.60 159.71 o
-3 5 1 16349.20 17084.70 83.72 o
-2 5 -1 14226.30 14275.70 96.05 o
-5 6 1 82304.80 77863.40 181.52 o
-1 6 -1 84920.60 95084.30 126.93 o
-4 6 -1 180470.00 156526.00 513.34 o
-4 7 1 43486.20 44351.80 98.85 o
-3 7 -1 40915.90 40429.80 116.69 o
-1 7 1 110531.00 121034.00 144.89 o
-6 7 -1 114194.00 112913.00 173.42 o
-6 8 1 13204.70 11843.30 94.95 o
-2 8 -1 13256.10 13623.00 67.47 o
-3 8 1 7109.02 7275.84 69.53 o
-5 8 -1 7507.47 7326.20 74.53 o
-8 9 1 19524.30 17783.00 107.78 o
-1 9 -1 21342.20 22367.40 72.80 o
-5 9 1 103857.00 104563.00 141.10 o
-4 9 -1 105866.00 106166.00 157.66 o
-2 9 1 190918.00 215754.00 188.43 o
-7 9 -1 185880.00 181925.00 202.12 o
-7 10 1 30005.90 28118.90 101.06 o
-3 10 -1 26739.30 27337.80 80.63 o
-4 10 1 127738.00 134140.00 139.49 o
-6 10 -1 131939.00 130897.00 170.13 o
-1 10 1 155195.00 171889.00 143.61 o
-9 10 -1 156670.00 138987.00 201.81 o
-9 11 1 22339.60 19129.70 107.68 o
-2 11 -1 21718.00 21614.30 80.10 o
-6 11 1 6493.23 6146.64 74.29 o
-5 11 -1 5797.56 5244.84 69.30 o
-3 11 1 2963.18 3044.88 66.68 o
-8 11 -1 3272.69 3178.98 81.51 o
-11 12 1 6224.57 5905.03 98.95 o
-1 12 -1 6623.88 6997.78 69.28 o
-8 12 1 32071.90 31372.00 105.81 o
-4 12 -1 32966.40 34395.90 90.75 o
-5 12 1 103001.00 105788.00 134.81 o
-7 12 -1 99921.40 98562.30 131.90 o
-2 12 1 138038.00 148459.00 131.73 o
-10 12 -1 136871.00 121572.00 188.05 o
-10 13 1 14733.60 13605.30 96.99 o
-3 13 -1 15299.10 15620.10 79.61 o
-7 13 1 76048.60 72614.20 137.09 o
-6 13 -1 74936.90 75815.80 124.07 o
-4 13 1 123967.00 130874.00 148.88 o
-9 13 -1 126609.00 109162.00 181.07 o
-1 13 1 129712.00 136127.00 132.62 o
-12 13 -1 128508.00 112526.00 190.85 o
-12 14 1 2386.98 2247.76 93.76 o
-2 14 -1 2557.29 2529.29 71.56 o
-9 14 1 2721.16 2455.70 86.38 o
-5 14 -1 2768.01 2722.33 74.04 o
-6 14 1 3321.67 3229.43 79.01 o
-8 14 -1 3388.70 3266.60 81.48 o
-3 14 1 876.82 958.98 73.96 o
-11 14 -1 819.05 1055.09 101.07 o
-14 15 1 4668.62 4695.80 106.22 o
-1 15 -1 4462.62 5073.17 91.39 o
-11 15 1 5217.76 5209.35 101.32 o
-4 15 -1 5110.12 5270.81 81.55 o
-8 15 1 42390.70 40467.60 123.68 o
-7 15 -1 41530.20 41184.80 100.92 o
-5 15 1 75150.20 77332.90 120.74 o
-10 15 -1 77628.70 70879.30 146.62 o
-2 15 1 103171.00 105932.00 140.48 o
-13 15 -1 105126.00 91600.10 192.70 o
-13 16 1 13681.60 12759.90 124.10 o
-3 16 -1 13837.20 14230.50 101.77 o
-10 16 1 14789.30 13157.70 114.26 o
-6 16 -1 15152.70 15214.90 91.93 o
-7 16 1 58433.50 56175.20 139.87 o
-9 16 -1 58722.90 55148.60 137.34 o
-4 16 1 74297.60 77325.40 125.54 o
-12 16 -1 72176.40 64388.40 153.56 o
-9 17 1 3844.80 3592.46 106.17 o
-8 17 -1 3180.33 3109.90 93.79 o
-6 17 1 5083.74 4489.15 210.00 o
0 1 2 13145.80 13933.10 189.73 o
-1 1 -2 13182.20 12778.40 179.35 o
-2 2 2 25347.70 28608.00 207.44 o
0 2 -2 26076.40 27802.60 213.21 o
-1 3 2 1956.05 2409.60 116.39 o
-2 3 -2 1869.97 2631.90 91.61 o
-3 4 2 35632.10 36426.60 134.78 o
-1 4 -2 35242.00 37049.10 129.40 o
0 4 2 63523.40 71332.90 234.22 o
-4 4 -2 60825.80 65697.20 213.96 o
-5 5 2 192119.00 169764.00 484.04 o
0 5 -2 197267.00 183108.00 503.02 o
-2 5 2 66643.10 74271.50 153.82 o
-3 5 -2 64199.70 65069.00 166.92 o
-4 6 2 19455.10 19099.00 93.70 o
-2 6 -2 20530.30 21179.20 91.30 o
-1 6 2 3838.12 4200.64 71.83 o
-5 6 -2 4337.59 4741.29 76.83 o
-6 7 2 46553.50 43443.70 134.98 o
-1 7 -2 45580.10 48653.60 101.13 o
-3 7 2 44540.10 46394.10 104.01 o
-4 7 -2 46010.20 45807.70 125.03 o
0 7 2 60144.50 65010.60 167.88 o
-7 7 -2 59951.50 59700.40 165.22 o
-8 8 2 239943.00 208194.00 464.20 o
0 8 -2 243930.00 277599.00 290.25 o
-5 8 2 135842.00 136325.00 169.43 o
-3 8 -2 134461.00 142277.00 169.21 o
-2 8 2 58991.20 63363.70 109.84 o
-6 8 -2 58957.10 56884.00 130.76 o
-7 9 2 54524.70 51523.90 126.71 o
-2 9 -2 54073.20 57092.50 100.82 o
-4 9 2 10691.90 10845.20 69.70 o
-5 9 -2 11220.00 10907.90 84.67 o
-1 9 2 6226.71 6257.64 69.36 o
-8 9 -2 6672.70 5809.01 79.30 o
-9 10 2 66135.60 60369.30 145.01 o
-1 10 -2 62781.70 66041.00 100.74 o
-6 10 2 43765.70 42219.80 112.44 o
-4 10 -2 46443.00 48120.90 94.76 o
-3 10 2 39964.20 41199.60 91.65 o
-7 10 -2 40348.80 38497.60 109.51 o
0 10 2 13442.40 14374.90 99.53 o
-10 10 -2 11825.00 10848.70 136.70 o
-11 11 2 215775.00 195493.00 337.72 o
0 11 -2 216651.00 240170.00 261.86 o
-8 11 2 185572.00 176281.00 201.82 o
-3 11 -2 185644.00 205302.00 168.19 o
-5 11 2 93140.90 95099.40 134.67 o
-6 11 -2 88072.20 87453.00 142.08 o
-2 11 2 29185.70 30133.50 88.06 o
-9 11 -2 30688.00 28400.00 103.26 o
-10 12 2 60708.10 56845.20 128.11 o
-2 12 -2 58798.30 60533.70 102.36 o
-7 12 2 19305.80 18830.30 97.40 o
-5 12 -2 20612.90 21244.50 82.49 o
-4 12 2 10728.60 11252.20 76.95 o
-8 12 -2 11686.30 10810.10 91.91 o
-1 12 2 1086.29 1292.02 64.11 o
-11 12 -2 1157.55 946.86 98.63 o
-12 13 2 41121.40 37655.30 121.14 o
-1 13 -2 41974.30 43077.30 108.58 o
-9 13 2 43315.30 40711.60 116.46 o
-4 13 -2 44457.50 45022.10 93.74 o
-6 13 2 24148.40 23888.20 102.61 o
-7 13 -2 23799.30 23237.30 90.08 o
-3 13 2 2639.39 2783.95 71.57 o
-10 13 -2 2677.30 2413.80 91.32 o
0 13 2 6865.96 7077.29 108.84 o
-13 13 -2 7100.80 6239.54 173.18 o
-14 14 2 111450.00 105025.00 237.75 o
0 14 -2 108358.00 112898.00 195.64 o
-11 14 2 151109.00 139901.00 187.49 o
-3 14 -2 153205.00 160215.00 152.84 o
-8 14 2 104893.00 102283.00 159.80 o
-6 14 -2 105549.00 107635.00 131.03 o
-5 14 2 40608.10 40993.00 121.15 o
-9 14 -2 39199.30 36437.40 113.49 o
-2 14 2 1545.76 1861.95 69.05 o
-12 14 -2 1816.69 1756.17 106.06 o
-13 15 2 26005.00 24573.60 117.45 o
-2 15 -2 26153.80 26982.20 104.96 o
-10 15 2 29455.30 28007.20 120.25 o
-5 15 -2 30816.90 31367.80 100.28 o
-7 15 2 29335.80 28790.50 122.77 o
-8 15 -2 28036.80 27637.80 97.64 o
-4 15 2 12971.30 13392.40 99.28 o
-11 15 -2 13263.40 11694.20 124.12 o
-1 15 2 1150.11 1284.53 83.83 o
-14 15 -2 1163.24 1225.36 123.28 o
-12 16 2 20960.70 19717.40 127.08 o
-4 16 -2 21224.20 21394.80 99.68 o
-9 16 2 9313.12 8710.20 113.92 o
-7 16 -2 8789.92 8692.85 89.13 o
-6 16 2 3049.17 2937.03 106.13 o
-10 16 -2 3039.59 3062.89 96.26 o
-3 16 2 4525.45 4603.95 103.74 o
-13 16 -2 3966.98 3493.91 130.87 o
-8 17 2 28721.60 26887.80 145.10 o
-9 17 -2 29925.40 29575.60 112.64 o
-4 5 3 307259.00 262977.00 624.19 o
-4 5 -3 334231.00 344444.00 716.63 o
-3 6 3 9947.04 10708.70 89.91 o
-3 6 -3 9839.95 10839.50 92.39 o
-5 7 3 136304.00 144861.00 185.41 o
-2 7 -3 131997.00 140686.00 176.09 o
-2 7 3 121779.00 128779.00 185.52 o
-5 7 -3 123813.00 127764.00 171.82 o
-7 8 3 86568.50 84269.50 157.43 o
-1 8 -3 88157.70 94822.60 128.26 o
-4 8 3 66213.90 66608.10 131.71 o
-4 8 -3 64462.60 66228.50 134.12 o
-1 8 3 69330.90 74717.40 128.76 o
-7 8 -3 69040.90 67852.00 120.84 o
-6 9 3 2055.10 2194.58 78.99 o
-3 9 -3 2590.54 2948.93 66.68 o
-3 9 3 7050.12 7662.59 79.35 o
-6 9 -3 6653.87 6259.25 84.28 o
-8 10 3 40293.30 39137.40 116.93 o
-2 10 -3 36661.80 37789.60 91.26 o
-5 10 3 45334.20 45704.80 107.40 o
-5 10 -3 45376.20 46371.20 109.96 o
-2 10 3 41621.20 43887.10 99.24 o
-8 10 -3 46679.10 43731.50 117.50 o
-10 11 3 6054.31 5794.56 84.12 o
-1 11 -3 6222.46 6351.99 74.23 o
-7 11 3 10932.30 10351.30 89.43 o
-4 11 -3 12876.10 12881.30 74.63 o
-4 11 3 18894.80 19540.40 87.46 o
-7 11 -3 17557.40 16777.70 99.85 o
-1 11 3 10668.70 11010.10 74.46 o
-10 11 -3 9886.88 8580.60 99.23 o
-9 12 3 4697.78 4486.15 88.98 o
-3 12 -3 5754.47 6148.99 69.26 o
-6 12 3 15190.10 15472.50 99.60 o
-6 12 -3 14990.10 15286.20 87.14 o
-3 12 3 6098.47 6380.48 74.22 o
-9 12 -3 5340.23 5044.44 91.49 o
-11 13 3 3755.81 3640.12 86.43 o
-2 13 -3 3916.72 4285.09 74.09 o
-8 13 3 16443.60 15489.10 107.06 o
-5 13 -3 16120.80 16073.40 84.64 o
-5 13 3 19213.50 19758.70 89.79 o
-8 13 -3 19494.80 18781.80 94.79 o
-2 13 3 3732.51 3862.33 76.56 o
-11 13 -3 3494.36 3595.11 111.11 o
-13 14 3 3123.70 3235.88 93.79 o
-1 14 -3 3158.59 3305.06 86.39 o
-10 14 3 3669.14 3615.05 98.77 o
-4 14 -3 3746.79 4183.18 76.55 o
-7 14 3 5959.59 6179.59 91.49 o
-7 14 -3 6073.35 6316.03 81.61 o
-4 14 3 3829.95 4257.47 81.49 o
-10 14 -3 3568.98 3592.62 96.30 o
-1 14 3 5905.10 6254.33 81.58 o
-13 14 -3 5745.21 5096.95 123.59 o
-12 15 3 11830.60 11509.70 109.12 o
-3 15 -3 11484.60 11839.80 86.78 o
-9 15 3 27319.80 26813.20 125.11 o
-6 15 -3 26581.40 27357.50 100.05 o
-6 15 3 32492.50 33236.70 122.96 o
-9 15 -3 32953.90 32173.40 105.42 o
-3 15 3 4755.86 4963.09 88.94 o
-12 15 -3 4915.09 4088.92 123.53 o
-11 16 3 4475.94 4055.65 113.62 o
-5 16 -3 4638.27 4715.54 88.93 o
-8 16 3 1894.81 2113.82 110.99 o
-8 16 -3 1543.49 1679.39 91.24 o
-5 16 3 1724.72 1736.26 113.45 o
-11 16 -3 1446.58 1351.32 115.90 o
0 2 4 23524.70 24727.10 165.28 o
-2 2 -4 20259.00 18587.90 161.66 o
-2 3 4 3580.68 4162.10 91.77 o
-1 3 -4 3778.44 4630.11 91.81 o
-4 4 4 24992.20 25857.80 138.09 o
0 4 -4 26368.80 24938.60 148.61 o
-1 4 4 15788.60 15310.70 98.53 o
-3 4 -4 15696.10 15793.50 88.42 o
-3 5 4 80696.00 81029.00 164.97 o
-2 5 -4 80230.20 87008.90 145.63 o
0 5 4 177596.00 193150.00 327.86 o
-5 5 -4 184070.00 186699.00 452.40 o
-5 6 4 22437.30 23486.30 98.67 o
-1 6 -4 22261.00 22975.60 96.12 o
-2 6 4 13717.10 13775.50 90.22 o
-4 6 -4 11266.90 11752.90 74.95 o
-7 7 4 50819.00 51663.90 186.27 o
0 7 -4 48313.00 49955.30 144.54 o
-4 7 4 20031.20 19714.80 90.68 o
-3 7 -4 19954.20 20080.80 93.19 o
-1 7 4 32956.60 33559.70 112.14 o
-6 7 -4 32804.70 32316.10 96.83 o
-6 8 4 38167.10 38687.30 109.82 o
-2 8 -4 37788.60 38722.30 102.12 o
-3 8 4 138197.00 146721.00 187.52 o
-5 8 -4 140456.00 151291.00 182.28 o
0 8 4 180297.00 195970.00 296.32 o
-8 8 -4 178323.00 196602.00 295.89 o
-8 9 4 4612.52 4503.80 84.09 o
-1 9 -4 3914.52 4098.33 69.21 o
-5 9 4 16977.00 17263.00 97.54 o
-4 9 -4 17161.80 17661.00 90.06 o
-2 9 4 82521.00 85207.50 145.02 o
-7 9 -4 83021.00 81300.50 142.44 o
-10 10 4 11904.70 11913.70 126.71 o
0 10 -4 12653.50 13085.80 99.44 o
-7 10 4 58871.70 58487.10 136.63 o
-3 10 -4 60371.30 62377.50 121.30 o
-4 10 4 64289.80 68184.30 116.58 o
-6 10 -4 64733.80 66945.30 139.94 o
-1 10 4 66050.40 70161.10 136.92 o
-9 10 -4 65475.60 60919.30 131.70 o
-9 11 4 17553.00 17487.60 99.76 o
-2 11 -4 17838.20 18546.20 82.32 o
-6 11 4 83281.00 86081.10 154.25 o
-5 11 -4 83978.00 87723.20 133.40 o
-3 11 4 157174.00 166869.00 169.78 o
-8 11 -4 154396.00 154764.00 185.88 o
0 11 4 203288.00 214547.00 294.98 o
-11 11 -4 201698.00 173837.00 339.20 o
-11 12 4 291.39 379.52 83.79 o
-1 12 -4 175.03 411.53 71.46 o
-8 12 4 8886.33 8952.66 94.19 o
-4 12 -4 8258.36 8795.32 74.33 o
-5 12 4 23595.10 24556.60 107.64 o
-7 12 -4 23652.10 23503.70 105.14 o
-2 12 4 39535.60 40647.60 108.62 o
-10 12 -4 41666.20 37327.20 111.29 o
-13 13 4 4564.98 4570.12 143.28 o
0 13 -4 4027.16 4519.34 121.01 o
-10 13 4 5439.48 5253.26 93.94 o
-3 13 -4 4834.32 4784.27 76.61 o
-7 13 4 16154.40 15979.90 121.96 o
-6 13 -4 16286.50 16767.80 99.57 o
-4 13 4 29196.80 30768.20 110.37 o
-9 13 -4 29169.70 29277.80 110.37 o
-1 13 4 34025.80 34033.60 97.99 o
-12 13 -4 33463.50 29680.10 125.58 o
-12 14 4 5239.19 5315.62 98.85 o
-2 14 -4 4967.47 5260.45 81.54 o
-9 14 4 39903.00 40131.60 138.69 o
-5 14 -4 40233.30 40782.30 98.36 o
-6 14 4 101816.00 104161.00 180.19 o
-8 14 -4 102282.00 100536.00 177.62 o
-3 14 4 146358.00 151253.00 168.05 o
-11 14 -4 146946.00 139897.00 181.44 o
0 14 4 144420.00 147741.00 236.17 o
-14 14 -4 147606.00 132521.00 287.03 o
-14 15 4 889.22 717.36 253.91 <
-1 15 -4 1302.32 1449.82 160.27 o
-11 15 4 10642.70 10084.90 114.01 o
-4 15 -4 10731.10 10729.80 91.71 o
-8 15 4 15003.10 15266.90 144.12 o
-7 15 -4 15500.70 15489.90 89.48 o
-5 15 4 26952.40 27858.60 107.54 o
-10 15 -4 26732.70 25874.70 125.04 o
-2 15 4 23745.50 23981.40 99.82 o
-13 15 -4 22766.80 20270.10 127.20 o
-10 16 4 3709.62 3710.79 148.13 o
-6 16 -4 3478.68 3475.81 91.34 o
-7 16 4 6355.80 6658.40 113.73 o
-9 16 -4 6115.94 6234.80 89.00 o
-4 16 4 24729.50 25241.50 119.83 o
-12 16 -4 24989.40 21699.50 149.81 o
-1 3 5 36155.60 35953.60 127.67 o
-2 3 -5 37178.50 34205.90 120.04 o
-3 4 5 41626.60 39653.90 130.47 o
-1 4 -5 42524.50 41689.70 122.79 o
-2 5 5 18870.50 18643.20 103.47 o
-3 5 -5 18646.90 18935.70 88.31 o
-4 6 5 80490.00 79537.90 164.15 o
-2 6 -5 76420.90 78367.50 139.33 o
-1 6 5 33753.00 33319.50 107.34 o
-5 6 -5 35976.70 35926.90 125.53 o
-6 7 5 120025.00 124498.00 181.71 o
-1 7 -5 119151.00 123572.00 156.81 o
-3 7 5 38998.90 39569.70 120.48 o
-4 7 -5 39693.00 41854.40 105.18 o
-5 8 5 5713.21 5719.47 74.31 o
-3 8 -5 5842.83 6010.01 76.80 o
-2 8 5 16112.80 16352.00 95.00 o
-6 8 -5 14752.20 15847.70 82.40 o
-7 9 5 153828.00 159712.00 185.67 o
-2 9 -5 150701.00 156964.00 165.90 o
-4 9 5 100996.00 104480.00 147.09 o
-5 9 -5 101321.00 105442.00 152.48 o
-1 9 5 17615.80 17823.10 89.93 o
-8 9 -5 18251.80 18206.70 87.47 o
-9 10 5 115011.00 118233.00 181.19 o
-1 10 -5 120524.00 129388.00 139.05 o
-6 10 5 115315.00 120385.00 155.55 o
-4 10 -5 119004.00 125738.00 153.27 o
-3 10 5 29814.10 30163.80 95.74 o
-7 10 -5 27148.60 27589.90 100.58 o
-8 11 5 5218.27 5160.88 101.39 o
-3 11 -5 5437.93 5468.35 66.78 o
-5 11 5 1397.12 1477.39 73.99 o
-6 11 -5 1319.57 1319.46 69.06 o
-2 11 5 3355.62 3427.74 76.56 o
-9 11 -5 3042.88 3123.32 86.42 o
-10 12 5 127813.00 127213.00 188.76 o
-2 12 -5 125369.00 131383.00 140.71 o
-7 12 5 94220.00 96119.40 143.87 o
-5 12 -5 92652.30 94474.70 135.89 o
-4 12 5 40415.00 42247.70 103.67 o
-8 12 -5 43552.50 43235.80 114.01 o
-1 12 5 6139.48 6269.44 84.09 o
-11 12 -5 5900.77 5286.84 91.49 o
-12 13 5 113373.00 113870.00 186.15 o
-1 13 -5 113797.00 119812.00 141.61 o
-9 13 5 95948.80 96490.70 169.41 o
-4 13 -5 94094.00 98443.90 124.97 o
-6 13 5 51144.90 51834.60 119.45 o
-7 13 -5 51679.20 52237.50 116.95 o
-3 13 5 13157.70 13253.40 86.92 o
-10 13 -5 12348.70 11847.10 124.11 o
-11 14 5 65.16 261.19 108.42 <
-3 14 -5 104.86 342.51 81.32 o
-8 14 5 2381.50 2420.52 91.29 o
-6 14 -5 2559.77 2909.36 78.96 o
-5 14 5 4124.13 4260.51 86.45 o
-9 14 -5 4044.87 3716.97 93.85 o
-2 14 5 4074.80 4022.90 96.31 o
-12 14 -5 3773.61 3570.38 116.05 o
-13 15 5 101320.00 97433.30 199.90 o
-2 15 -5 102341.00 106270.00 145.45 o
-10 15 5 60084.20 59836.90 150.17 o
-5 15 -5 59159.90 59751.70 122.11 o
-7 15 5 29513.60 30571.90 122.72 o
-8 15 -5 30007.80 29555.60 115.24 o
-4 15 5 3982.23 4237.40 98.77 o
-11 15 -5 3605.54 3866.21 103.69 o
-9 16 5 66169.50 64494.30 160.73 o
-7 16 -5 65375.20 64409.40 127.51 o
-6 16 5 14106.20 14605.30 126.61 o
-10 16 -5 15058.40 14500.90 114.26 o
-1 2 6 112590.00 103271.00 180.96 o
-1 2 -6 112379.00 97927.50 169.42 o
-2 4 6 92123.10 91254.50 159.63 o
-2 4 -6 90713.70 88173.00 159.38 o
-4 5 6 73372.60 71228.50 152.08 o
-1 5 -6 73642.70 73890.80 141.45 o
-1 5 6 55286.90 53692.50 133.51 o
-4 5 -6 57046.30 58474.40 125.89 o
-6 6 6 135303.00 139432.00 256.38 o
0 6 -6 130458.00 128530.00 255.32 o
-3 6 6 198637.00 196526.00 259.43 o
-3 6 -6 203006.00 202086.00 254.43 o
0 6 6 180257.00 187604.00 300.98 o
-6 6 -6 179321.00 188396.00 300.75 o
-5 7 6 28276.40 28362.50 106.25 o
-2 7 -6 27637.50 27716.30 98.60 o
-2 7 6 37619.50 37035.50 109.71 o
-5 7 -6 38315.70 39497.00 102.12 o
-7 8 6 24600.80 24414.80 108.10 o
-1 8 -6 25667.90 25485.00 93.09 o
-4 8 6 48952.60 48815.00 125.92 o
-4 8 -6 48500.60 49466.90 113.03 o
-1 8 6 22340.20 22736.70 92.84 o
-7 8 -6 22106.20 22022.40 115.41 o
-9 9 6 35398.30 36012.90 171.80 o
0 9 -6 33823.80 35087.50 126.19 o
-6 9 6 77427.70 78860.20 133.36 o
-3 9 -6 78893.80 80728.90 130.89 o
-3 9 6 70135.50 70976.10 132.64 o
-6 9 -6 70794.90 75070.20 122.29 o
0 9 6 51423.10 51519.10 173.72 o
-9 9 -6 48325.00 47105.90 165.70 o
-8 10 6 821.74 904.80 113.41 o
-2 10 -6 1082.41 1250.19 78.91 o
-5 10 6 3920.01 3901.91 74.13 o
-5 10 -6 3517.29 3693.24 76.58 o
-2 10 6 1122.60 1691.63 88.77 o
-8 10 -6 1458.10 1645.17 74.00 o
-10 11 6 5410.60 5276.16 98.90 o
-1 11 -6 6075.91 6371.65 76.68 o
-7 11 6 32473.70 33296.40 100.73 o
-4 11 -6 31371.60 32041.60 100.66 o
-4 11 6 19741.50 20283.10 89.89 o
-7 11 -6 17848.10 17748.60 89.78 o
-1 11 6 4900.12 4896.30 96.39 o
-10 11 -6 5482.56 5239.31 89.01 o
-12 12 6 3191.78 2922.73 143.17 o
0 12 -6 3356.76 3451.32 103.69 o
-9 12 6 8775.92 8601.57 104.05 o
-3 12 -6 8408.53 8651.63 81.74 o
-6 12 6 7227.20 7356.84 84.16 o
-6 12 -6 7920.24 7986.64 84.20 o
-3 12 6 4010.90 4028.76 86.45 o
-9 12 -6 3598.21 3442.46 88.90 o
0 12 6 577.70 628.52 135.56 o
-12 12 -6 826.12 838.15 160.24 o
-11 13 6 3826.97 3758.41 121.00 o
-2 13 -6 3590.12 3609.75 81.48 o
-8 13 6 3879.85 4000.93 96.32 o
-5 13 -6 4343.94 4646.81 86.46 o
-5 13 6 7024.20 7304.29 86.60 o
-8 13 -6 7423.14 7494.12 91.57 o
-2 13 6 2570.73 2877.23 86.37 o
-11 13 -6 2368.29 2462.39 98.69 o
-13 14 6 194.17 275.99 120.75 <
-1 14 -6 133.72 300.63 86.25 o
-10 14 6 8595.49 8621.09 108.94 o
-4 14 -6 8094.03 8450.35 84.16 o
-7 14 6 13676.00 14010.70 96.85 o
-7 14 -6 14748.10 14849.20 94.42 o
-4 14 6 11821.70 12168.70 96.73 o
-10 14 -6 11796.70 11459.20 106.65 o
-1 14 6 1666.21 2017.35 91.25 o
-13 14 -6 1840.25 1726.50 147.99 o
-12 15 6 4653.02 4485.75 133.39 o
-3 15 -6 5066.31 5181.00 88.94 o
-9 15 6 1382.79 1444.99 115.89 o
-6 15 -6 1387.03 1551.02 88.77 o
-6 15 6 747.70 1010.64 96.13 o
-9 15 -6 718.93 872.59 103.53 o
-3 15 6 2340.03 2282.04 93.75 o
-12 15 -6 2753.15 2714.38 106.11 o
-8 16 6 28619.90 29421.00 137.59 o
-8 16 -6 26953.30 26658.50 107.47 o
-2 3 7 8206.46 7498.95 79.62 o
-1 3 -7 7844.98 7137.63 79.58 o
-1 4 7 30803.90 30801.00 109.57 o
-3 4 -7 32871.10 29965.30 107.26 o
-3 5 7 10887.70 10318.70 89.71 o
-2 5 -7 9637.75 9158.19 79.64 o
-5 6 7 46739.50 44930.20 133.70 o
-1 6 -7 49971.30 47148.20 121.19 o
-2 6 7 126528.00 124863.00 179.51 o
-4 6 -7 123614.00 129288.00 168.04 o
-4 7 7 32918.80 31848.30 116.65 o
-3 7 -7 32512.40 34182.10 96.33 o
-1 7 7 81373.30 80464.90 139.60 o
-6 7 -7 81343.00 83571.00 144.86 o
-6 8 7 12079.60 12210.00 92.05 o
-2 8 -7 11591.90 11593.50 87.04 o
-3 8 7 2797.74 2983.27 74.09 o
-5 8 -7 3029.25 3213.55 71.63 o
-8 9 7 21713.50 21495.30 135.11 o
-1 9 -7 23184.80 23931.90 90.17 o
-5 9 7 59218.50 60758.80 121.00 o
-4 9 -7 58965.30 59589.40 118.40 o
-2 9 7 130149.00 134468.00 175.39 o
-7 9 -7 126667.00 132692.00 164.21 o
-7 10 7 32792.40 33872.20 103.32 o
-3 10 -7 29744.40 30711.90 100.59 o
-4 10 7 58981.70 60570.40 118.03 o
-6 10 -7 61578.90 63513.50 131.08 o
-1 10 7 116662.00 121983.00 167.08 o
-9 10 -7 121827.00 121490.00 167.60 o
-9 11 7 12616.00 12390.50 116.73 o
-2 11 -7 12340.50 12413.20 81.94 o
-6 11 7 5673.63 5945.54 79.14 o
-5 11 -7 5246.68 5303.50 79.12 o
-3 11 7 2295.50 2637.89 88.83 o
-8 11 -7 2381.59 2699.73 86.37 o
-11 12 7 5410.80 5333.93 126.06 o
-1 12 -7 5427.20 5924.72 76.62 o
-8 12 7 18155.30 18966.70 102.15 o
-4 12 -7 19783.80 20501.60 94.76 o
-5 12 7 82789.80 84788.30 137.24 o
-7 12 -7 80580.00 80521.00 139.65 o
-2 12 7 113032.00 114459.00 165.52 o
-10 12 -7 111449.00 110929.00 178.51 o
-10 13 7 10906.70 10971.00 114.05 o
-3 13 -7 10944.10 11434.90 84.30 o
-7 13 7 55738.50 56901.30 122.13 o
-6 13 -7 56170.70 55612.10 124.70 o
-4 13 7 98379.00 101201.00 148.38 o
-9 13 -7 98464.40 98404.40 164.01 o
-1 13 7 96632.00 99594.80 150.47 o
-12 13 -7 96046.80 92025.50 194.51 o
-12 14 7 3145.86 3117.30 128.35 o
-2 14 -7 2949.85 3072.55 86.38 o
-9 14 7 1880.31 2002.85 103.60 o
-5 14 -7 1830.18 1825.21 78.93 o
-6 14 7 1787.24 1822.71 93.73 o
-8 14 -7 1941.47 2111.46 93.73 o
-3 14 7 889.41 1205.47 93.68 o
-11 14 -7 914.23 1116.74 101.07 o
-11 15 7 5246.41 5332.20 118.60 o
-4 15 -7 5104.73 5272.50 93.89 o
-8 15 7 29065.60 30553.80 132.65 o
-7 15 -7 29114.70 29193.10 115.13 o
-5 15 7 68162.30 70578.00 140.46 o
-10 15 -7 69225.60 66285.30 153.31 o
0 1 8 20677.90 20107.80 128.57 o
-1 1 -8 19932.50 18003.10 125.95 o
-2 2 8 31603.30 29089.00 142.71 o
0 2 -8 30706.60 27524.00 140.03 o
-1 3 8 604.62 912.25 71.50 o
-2 3 -8 672.57 791.49 69.04 o
-3 4 8 26184.10 24812.80 98.58 o
-1 4 -8 26536.70 25564.70 98.62 o
0 4 8 38697.20 39333.20 161.01 o
-4 4 -8 38760.80 35340.60 161.02 o
-5 5 8 59885.20 56543.50 181.70 o
0 5 -8 63795.60 64926.80 197.93 o
-2 5 8 29495.20 28468.80 103.82 o
-3 5 -8 27767.60 22750.80 111.24 o
-4 6 8 26991.40 26695.90 98.36 o
-2 6 -8 26768.80 26322.70 100.86 o
-1 6 8 716.15 894.97 83.83 o
-5 6 -8 480.20 801.12 73.95 o
-6 7 8 40098.30 40894.60 109.30 o
-1 7 -8 40799.90 38810.60 114.45 o
-3 7 8 46502.80 45087.80 122.78 o
-4 7 -8 47964.20 49623.80 110.11 o
0 7 8 37389.10 36734.90 159.65 o
-7 7 -8 36416.60 34328.10 184.86 o
-8 8 8 173282.00 182897.00 284.57 o
0 8 -8 174002.00 171997.00 276.41 o
-5 8 8 83834.90 84128.00 154.64 o
-3 8 -8 84720.90 85571.20 133.76 o
-2 8 8 41292.40 40904.40 111.77 o
-6 8 -8 41481.00 42383.40 109.24 o
-7 9 8 16661.40 17093.80 99.70 o
-2 9 -8 15463.30 15650.20 92.15 o
-4 9 8 5511.98 5340.72 91.53 o
-5 9 -8 5289.42 5250.83 71.73 o
-1 9 8 5703.86 5909.20 89.05 o
-8 9 -8 5459.29 5109.41 86.56 o
-9 10 8 37261.30 37821.30 153.84 o
-1 10 -8 35294.10 35888.90 100.75 o
-6 10 8 18923.90 19529.60 97.31 o
-4 10 -8 18821.70 19156.50 92.31 o
-3 10 8 9148.76 8889.26 94.20 o
-7 10 -8 9174.17 9357.93 84.28 o
0 10 8 10271.50 10235.50 138.85 o
-10 10 -8 10463.00 10462.30 138.87 o
-11 11 8 154916.00 147115.00 429.21 o
0 11 -8 152689.00 155380.00 225.07 o
-8 11 8 143659.00 151594.00 185.00 o
-3 11 -8 143139.00 147688.00 166.19 o
-5 11 8 65919.10 68283.60 130.88 o
-6 11 -8 64956.60 66951.40 128.24 o
-2 11 8 16991.80 17401.20 99.58 o
-9 11 -8 17850.50 17402.70 102.12 o
-10 12 8 37214.10 37584.20 148.49 o
-2 12 -8 38249.60 39474.50 103.24 o
-7 12 8 20193.30 21002.10 102.24 o
-5 12 -8 20459.50 20890.70 97.27 o
-4 12 8 10002.10 10236.60 94.19 o
-8 12 -8 10178.90 9870.83 96.68 o
-1 12 8 1886.03 2059.62 91.26 o
-11 12 -8 2010.92 2072.10 108.54 o
-12 13 8 32652.10 31154.30 183.05 o
-1 13 -8 33119.80 33916.10 105.35 o
-9 13 8 33286.80 34192.10 135.55 o
-4 13 -8 34283.10 34856.40 113.02 o
-6 13 8 18194.50 18326.10 99.59 o
-7 13 -8 17950.00 17464.80 109.53 o
-3 13 8 4515.66 4804.54 88.93 o
-10 13 -8 4108.17 3961.30 103.72 o
0 13 8 4256.35 4534.18 145.71 o
-13 13 -8 4009.49 3491.55 251.87 o
-11 14 8 96190.70 96196.90 204.65 o
-3 14 -8 97663.00 99788.50 145.18 o
-8 14 8 65024.60 65858.70 140.34 o
-6 14 -8 65532.50 65483.20 135.27 o
-5 14 8 25731.20 26920.70 112.44 o
-9 14 -8 24821.00 24260.20 122.38 o
-2 14 8 573.51 860.19 91.20 o
-12 14 -8 474.45 566.86 125.69 o
-10 15 8 22801.60 23118.00 194.52 o
-5 15 -8 23722.40 22986.90 199.60 o
-7 15 8 23122.30 24178.70 112.25 o
-8 15 -8 23388.10 22011.60 122.25 o
-1 2 9 220479.00 209120.00 245.15 o
-1 2 -9 221636.00 202487.00 221.43 o
-2 4 9 183213.00 175253.00 218.00 o
-2 4 -9 182728.00 170746.00 197.85 o
-4 5 9 129422.00 127812.00 177.53 o
-1 5 -9 128541.00 125972.00 171.95 o
-1 5 9 122822.00 119637.00 171.21 o
-4 5 -9 123271.00 99036.10 141.36 o
-3 6 9 1039.79 1334.13 71.52 o
-3 6 -9 902.86 1176.17 73.97 o
-5 7 9 91103.00 91964.90 147.40 o
-2 7 -9 91853.80 91723.50 147.48 o
-2 7 9 97161.90 94643.70 155.96 o
-5 7 -9 95328.70 97337.20 145.20 o
-7 8 9 47831.50 47808.20 137.42 o
-1 8 -9 48019.40 45788.10 119.62 o
-4 8 9 53081.70 52825.20 127.88 o
-4 8 -9 51995.60 53710.90 112.45 o
-1 8 9 29881.20 29528.60 105.61 o
-7 8 -9 30556.70 30130.70 113.21 o
-6 9 9 1840.06 1951.41 83.88 o
-3 9 -9 1469.51 1529.17 73.99 o
-3 9 9 4216.71 4141.30 84.01 o
-6 9 -9 4734.57 4651.93 74.15 o
-8 10 9 14180.60 14498.90 106.88 o
-2 10 -9 15892.30 16248.50 92.07 o
-5 10 9 33454.90 34339.90 105.70 o
-5 10 -9 33887.60 34371.80 110.76 o
-2 10 9 28742.30 28998.80 115.36 o
-8 10 -9 28576.30 28609.70 112.84 o
-10 11 9 5474.20 5393.39 135.95 o
-1 11 -9 4838.70 5280.23 79.07 o
-7 11 9 3841.05 3978.68 83.97 o
-4 11 -9 3341.33 3481.23 83.94 o
-4 11 9 6096.56 6133.18 96.45 o
-7 11 -9 7025.74 7383.73 96.50 o
-1 11 9 5094.27 5327.96 106.26 o
-10 11 -9 5032.94 5154.79 101.32 o
-9 12 9 5671.95 5930.19 116.18 o
-3 12 -9 5554.68 5952.04 93.93 o
-6 12 9 10742.50 11072.80 96.69 o
-6 12 -9 10426.90 10394.00 96.68 o
-3 12 9 4565.70 4869.13 106.23 o
-9 12 -9 5354.93 5242.04 108.75 o
-11 13 9 2667.63 2600.79 133.25 o
-2 13 -9 2640.69 2845.03 86.36 o
-8 13 9 5439.34 5669.49 96.39 o
-5 13 -9 5383.49 5352.98 88.97 o
-5 13 9 10470.40 10394.20 94.18 o
-8 13 -9 10241.50 9902.19 101.60 o
-2 13 9 2570.75 2701.82 101.16 o
-11 13 -9 2383.62 2208.11 130.76 o
-10 14 9 3884.26 3923.42 138.27 o
-4 14 -9 3701.37 4014.38 86.41 o
-7 14 9 2477.40 2785.57 103.63 o
-7 14 -9 2590.26 2788.20 103.63 o
-4 14 9 2765.30 3126.49 103.64 o
-10 14 -9 2715.55 2936.40 118.44 o
-1 1 10 11105.30 10563.90 114.45 o
0 1 -10 11457.40 10027.10 109.50 o
0 2 10 17887.90 16634.30 120.08 o
-2 2 -10 17364.50 14376.40 115.03 o
-2 3 10 427.70 527.48 69.02 o
-1 3 -10 488.65 650.76 71.48 o
-4 4 10 24922.40 24070.70 135.68 o
0 4 -10 24224.80 22950.20 133.10 o
-1 4 10 11394.10 11237.10 87.03 o
-3 4 -10 11570.00 10040.00 84.56 o
-3 5 10 30284.80 30432.90 110.97 o
-2 5 -10 29334.00 28697.20 105.85 o
0 5 10 50995.10 50772.10 168.85 o
-5 5 -10 52715.70 48535.00 176.74 o
-5 6 10 2516.24 2673.38 93.80 o
-1 6 -10 2714.18 2987.31 79.00 o
-2 6 10 7294.30 7310.44 84.23 o
-4 6 -10 6960.24 6417.04 84.21 o
-7 7 10 27756.20 28907.70 173.18 o
0 7 -10 25652.10 24484.20 152.88 o
-4 7 10 19473.80 20040.60 97.42 o
-3 7 -10 20108.00 19244.80 97.46 o
-1 7 10 23518.40 23498.30 107.66 o
-6 7 -10 23690.80 23293.20 102.67 o
-6 8 10 20020.30 20165.30 104.86 o
-2 8 -10 19726.70 18703.70 102.34 o
-3 8 10 84353.60 84219.10 150.96 o
-5 8 -10 85139.20 87601.70 138.01 o
0 8 10 103425.00 104106.00 228.32 o
-8 8 -10 104078.00 104387.00 220.53 o
-8 9 10 348.77 751.67 103.51 o
-1 9 -10 288.69 280.94 93.65 <
-5 9 10 7112.65 6908.28 94.06 o
-4 9 -10 7630.76 7507.29 89.14 o
-2 9 10 31288.00 31144.40 115.56 o
-7 9 -10 31263.50 30917.80 110.54 o
-10 10 10 10742.70 10062.90 190.90 o
0 10 -10 10244.20 10312.80 126.40 o
-7 10 10 19389.60 19887.80 112.18 o
-3 10 -10 20201.00 20338.80 99.76 o
-4 10 10 28094.00 28792.70 115.28 o
-6 10 -10 29685.30 30691.40 105.36 o
-1 10 10 41238.20 42343.10 126.16 o
-9 10 -10 38722.00 38734.90 120.94 o
-9 11 10 7335.57 7833.55 128.66 o
-2 11 -10 7862.32 8244.27 99.00 o
-6 11 10 69282.40 71166.10 138.42 o
-5 11 -10 67623.40 66490.70 140.85 o
-3 11 10 102228.00 105024.00 164.31 o
-8 11 -10 101723.00 100273.00 161.65 o
0 11 10 115777.00 119494.00 243.60 o
-11 11 -10 115184.00 115258.00 240.91 o
-11 12 10 386.74 630.91 152.80 o
-1 12 -10 292.02 653.06 91.18 o
-8 12 10 4638.26 4837.00 101.29 o
-4 12 -10 4998.29 4956.57 96.36 o
-5 12 10 18833.10 19250.70 109.56 o
-7 12 -10 19889.50 18890.80 112.12 o
-2 12 10 23603.10 24351.90 124.79 o
-10 12 -10 23008.20 21277.70 144.71 o
-10 13 10 4964.73 5005.35 135.88 o
-3 13 -10 5013.24 5146.31 93.88 o
-7 13 10 10675.20 11261.60 106.57 o
-6 13 -10 10682.40 10525.60 109.05 o
-4 13 10 16730.00 17391.60 114.37 o
-9 13 -10 16614.20 15956.00 121.82 o
-6 14 10 53431.90 54313.20 167.23 o
-8 14 -10 54031.20 50444.50 190.09 o
-1 3 11 19627.30 19111.50 90.03 o
-2 3 -11 20320.90 17627.60 87.58 o
-3 4 11 13019.50 13067.60 89.56 o
-1 4 -11 13823.10 12953.30 89.61 o
-2 5 11 9400.84 9907.36 91.78 o
-3 5 -11 8924.66 8282.27 86.79 o
-4 6 11 46183.60 46502.50 119.47 o
-2 6 -11 43106.10 41151.50 114.15 o
-1 6 11 13494.40 13471.90 104.43 o
-5 6 -11 14525.70 14133.10 94.55 o
-6 7 11 61809.30 62296.30 135.79 o
-1 7 -11 62921.80 58516.40 135.88 o
-3 7 11 19605.30 19657.70 104.83 o
-4 7 -11 19069.30 18430.80 92.32 o
-5 8 11 432.56 532.36 93.66 o
-3 8 -11 514.84 764.08 76.41 o
-2 8 11 7483.12 7364.69 96.55 o
-6 8 -11 7237.24 6984.86 91.58 o
-7 9 11 80139.20 83509.30 162.63 o
-2 9 -11 77349.10 76328.80 131.45 o
-4 9 11 46901.50 47228.30 129.24 o
-5 9 -11 47675.70 48243.70 116.62 o
-1 9 11 12078.50 12365.30 109.19 o
-8 9 -11 13026.40 12814.10 104.28 o
-9 10 11 69316.40 69834.00 268.80 o
-1 10 -11 72105.30 72446.10 133.32 o
-6 10 11 49454.70 50934.90 129.28 o
-4 10 -11 52140.90 52324.50 129.48 o
-3 10 11 25470.10 25666.10 117.52 o
-7 10 -11 23813.20 23136.40 107.41 o
-8 11 11 5315.31 5637.05 113.68 o
-3 11 -11 5613.53 5811.00 88.98 o
-5 11 11 3292.73 3453.53 93.81 o
-6 11 -11 2901.40 3013.46 96.25 o
-2 11 11 2497.90 2790.61 106.10 o
-9 11 -11 1842.18 1938.66 135.66 o
-10 12 11 73690.50 73511.50 245.84 o
-2 12 -11 72805.30 74899.00 133.10 o
-7 12 11 58209.00 60023.50 144.90 o
-5 12 -11 56909.90 56027.10 137.18 o
-4 12 11 20839.00 21416.00 112.14 o
-8 12 -11 22602.60 21670.80 124.72 o
-1 12 11 2372.50 2296.86 145.56 o
-11 12 -11 2372.72 2237.65 162.83 o
-9 13 11 53722.40 57647.90 202.73 o
-4 13 -11 53191.40 50394.30 233.07 o
-6 13 11 28221.60 28788.20 120.06 o
-7 13 -11 27588.30 26233.30 125.02 o
0 0 12 118872.00 117640.00 379.83 o
0 0 -12 109287.00 96429.30 345.53 o
-1 2 12 67400.00 67047.30 123.94 o
-1 2 -12 68866.80 59481.50 118.89 o
-3 3 12 164511.00 165607.00 255.07 o
0 3 -12 166960.00 156209.00 252.71 o
0 3 12 176035.00 182871.00 270.68 o
-3 3 -12 173984.00 153754.00 251.03 o
-2 4 12 32219.00 33814.40 103.25 o
-2 4 -12 31301.30 28569.10 100.67 o
-4 5 12 20142.10 20887.00 102.36 o
-1 5 -12 20626.40 20216.80 99.90 o
-1 5 12 25150.20 27084.00 105.20 o
-4 5 -12 24123.50 21689.40 102.63 o
-6 6 12 84913.00 88964.20 236.04 o
0 6 -12 84899.30 80647.60 215.29 o
-3 6 12 108791.00 112037.00 163.40 o
-3 6 -12 111425.00 105478.00 155.74 o
0 6 12 95657.40 97124.80 216.65 o
-6 6 -12 97128.40 95055.20 258.63 o
-5 7 12 7208.44 7627.83 99.00 o
-2 7 -12 6953.92 6995.62 94.03 o
-2 7 12 13792.20 13595.30 101.88 o
-5 7 -12 13247.20 13118.80 91.91 o
-7 8 12 17985.80 18894.10 114.54 o
-1 8 -12 17987.60 17108.80 109.56 o
-4 8 12 17922.40 18185.90 119.55 o
-4 8 -12 17755.50 18059.60 94.63 o
-1 8 12 14531.60 15059.20 101.89 o
-7 8 -12 14979.60 14016.60 124.28 o
-9 9 12 16177.00 16849.10 208.84 o
0 9 -12 14733.30 13640.90 158.99 o
-6 9 12 27127.80 28072.00 117.62 o
-3 9 -12 26329.10 25657.80 107.56 o
-3 9 12 24004.30 24389.80 124.91 o
-6 9 -12 23188.30 22640.60 109.87 o
0 9 12 14736.70 15220.90 173.90 o
-9 9 -12 14312.30 14452.40 144.05 o
-8 10 12 2955.41 3119.58 118.46 o
-2 10 -12 3167.13 3337.16 96.26 o
-5 10 12 1803.56 2271.64 106.06 o
-5 10 -12 1807.68 1918.93 96.19 o
-2 10 12 3557.21 3723.02 106.16 o
-8 10 -12 3877.85 3597.75 123.46 o
-10 11 12 2688.96 3015.32 160.39 o
-1 11 -12 2713.37 2864.83 96.23 o
-7 11 12 18543.10 19122.70 121.96 o
-4 11 -12 18592.60 17786.60 107.03 o
-4 11 12 12137.70 12302.50 111.62 o
-7 11 -12 11791.20 11519.00 104.15 o
-1 11 12 2018.92 2153.38 108.53 o
-10 11 -12 2114.92 2192.96 108.54 o
-9 12 12 5319.15 6328.11 259.45 o
-6 12 12 5560.93 5906.50 111.21 o
-6 12 -12 5709.07 5518.94 106.28 o
-3 12 12 4811.48 4881.29 207.50 o
-2 3 13 6555.71 6703.27 81.66 o
-1 3 -13 6622.47 5909.23 84.13 o
-1 4 13 14333.00 15064.90 94.48 o
-3 4 -13 14439.00 12484.90 92.00 o
-3 5 13 3820.10 4166.60 91.38 o
-2 5 -13 3828.38 3833.19 91.38 o
-5 6 13 16358.60 17586.10 119.43 o
-1 6 -13 16648.00 16683.30 111.99 o
-2 6 13 34911.80 36872.80 120.76 o
-4 6 -13 34723.80 31835.00 118.23 o
-4 7 13 14341.60 15035.70 101.88 o
-3 7 -13 14977.20 14429.70 101.92 o
-1 7 13 51171.80 52594.50 134.46 o
-6 7 -13 50194.30 47481.80 141.99 o
-6 8 13 5016.59 5475.79 103.78 o
-2 8 -13 5129.10 4922.60 106.26 o
-3 8 13 1943.91 2067.12 101.14 o
-5 8 -13 1831.93 1854.86 86.33 o
-8 9 13 17084.00 18600.70 141.76 o
-1 9 -13 17263.10 16262.00 126.85 o
-5 9 13 33172.40 34329.20 127.99 o
-4 9 -13 31877.30 31907.40 115.36 o
-2 9 13 48067.60 50432.30 136.58 o
-7 9 -13 48924.10 46935.40 149.30 o
-7 10 13 10539.70 11206.00 121.43 o
-3 10 -13 11142.40 10961.80 106.59 o
-4 10 13 33180.30 35297.50 140.48 o
-6 10 -13 31644.60 31882.40 117.80 o
-1 10 13 61187.60 65747.60 162.84 o
-9 10 -13 62473.10 61098.60 150.21 o
-6 11 13 611.05 971.12 110.92 o
-5 11 -13 654.08 808.47 103.52 o
-3 11 13 1227.41 1380.73 128.21 o
-8 11 -13 1241.63 1109.52 125.75 o
0 1 14 935.42 1050.26 115.87 o
-1 1 -14 631.80 796.17 113.39 o
-2 2 14 8843.40 9309.76 133.77 o
0 2 -14 8394.64 7402.68 123.83 o
-1 3 14 263.17 483.02 86.25 o
-2 3 -14 296.60 487.95 78.86 o
-3 4 14 6505.60 6906.13 93.99 o
-1 4 -14 6793.27 6343.25 84.11 o
0 4 14 9831.81 10949.20 133.83 o
-4 4 -14 9851.60 8285.10 133.83 o
-5 5 14 33399.60 36281.30 173.29 o
0 5 -14 32831.40 32832.50 170.73 o
-2 5 14 13672.00 14659.10 104.32 o
-3 5 -14 13781.60 12633.20 101.84 o
-4 6 14 7402.82 7903.45 98.98 o
-2 6 -14 7182.88 6789.08 101.44 o
-1 6 14 752.78 867.69 98.60 o
-5 6 -14 636.08 675.38 93.67 o
-6 7 14 15090.10 16225.20 116.78 o
-1 7 -14 16124.90 15046.10 119.33 o
-3 7 14 18509.90 19056.10 126.97 o
-4 7 -14 18820.90 17772.00 107.07 o
0 7 14 14730.50 15848.00 154.01 o
-7 7 -14 14138.00 14298.30 163.89 o
-8 8 14 71457.10 83821.00 250.73 o
0 8 -14 69971.80 67497.60 227.53 o
-5 8 14 40930.10 42748.30 151.17 o
-3 8 -14 41921.40 40219.90 141.17 o
-2 8 14 14236.80 15026.20 129.13 o
-6 8 -14 14324.40 13743.00 116.72 o
-7 9 14 9441.28 10443.40 136.21 o
-2 9 -14 8875.85 8637.93 118.84 o
-4 9 14 4558.39 5201.98 128.44 o
-5 9 -14 4373.45 4504.97 98.79 o
-1 9 14 1807.84 2019.95 120.85 o
-8 9 -14 1569.92 1708.97 108.51 o
-6 10 14 16309.90 17748.20 124.27 o
-4 10 -14 15430.70 15499.20 124.21 o
-1 2 15 90465.90 96259.80 152.94 o
-1 2 -15 91653.80 71949.50 137.48 o
-2 4 15 62776.90 69881.30 145.43 o
-2 4 -15 61697.40 57185.00 137.70 o
-4 5 15 59095.70 64154.50 150.15 o
-1 5 -15 57069.70 53634.20 137.28 o
-1 5 15 41492.50 46704.80 138.65 o
-4 5 -15 42568.10 37843.20 128.64 o
-3 6 15 203.15 463.28 98.57 o
-3 6 -15 164.36 436.16 105.96 o
-5 7 15 33726.80 37931.00 137.99 o
-2 7 -15 34689.40 33597.50 135.55 o
-2 7 15 41639.00 45970.90 151.17 o
-5 7 -15 40935.20 39332.50 138.52 o
-7 8 15 18141.90 23337.50 206.48 o
-4 8 15 26506.30 27961.30 149.94 o
-4 8 -15 27100.20 26757.60 122.49 o
-1 8 15 14431.30 16868.80 233.39 o
-1 1 16 1910.17 2012.74 133.20 o
0 1 -16 1499.12 1146.70 130.70 o
0 2 16 6505.53 7416.07 140.95 o
-2 2 -16 6997.30 5572.83 143.46 o
-2 3 16 188.50 820.59 96.11 o
-1 3 -16 185.70 401.67 96.10 o
-4 4 16 11820.50 12954.50 161.19 o
0 4 -16 11971.80 11100.50 151.28 o
-1 4 16 6663.83 7463.33 106.34 o
-3 4 -16 6783.96 5772.22 103.87 o
-3 5 16 9103.11 10360.10 118.85 o
-2 5 -16 8473.33 8131.29 108.91 o
0 5 16 18687.60 20900.10 184.16 o
-5 5 -16 18004.50 16581.10 186.58 o
-5 6 16 184.56 283.39 115.82 <
-1 6 -16 101.99 283.37 115.81 <
-2 6 16 3808.84 4367.67 111.11 o
-4 6 -16 4115.81 3963.41 106.18 o
-1 3 17 5858.86 6540.08 108.75 o
-2 3 -17 5946.67 4955.96 106.29 o
